<?xml version="1.0" encoding="UTF-8"?>

<!-- generated on 04-Nov-15 14:54:51 by SUMO gui Version 0.24.0
<?xml version="1.0" encoding="UTF-8"?>

<configuration xmlns:xsi="http://www.w3.org/2001/XMLSchema-instance" xsi:noNamespaceSchemaLocation="http://sumo.dlr.de/xsd/sumo-gui.exeConfiguration.xsd">

    <input>
        <net-file value="simulations/simple_cross/gen/cross.net.xml"/>
        <route-files value="simulations/simple_cross/gen/cross.rou.xml"/>
        <additional-files value="simulations/simple_cross/cross.det.xml"/>
    </input>

    <output>
        <tripinfo-output value="simulations/simple_cross/output/tripinfo.xml"/>
        <save-state.prefix value="simulations/simple_cross/state"/>
    </output>

    <time>
        <begin value="0"/>
    </time>

    <report>
        <verbose value="true"/>
        <no-step-log value="true"/>
    </report>

    <emissions>
        <phemlight-path value="simulations/simple_cross/./PHEMlight/"/>
    </emissions>

    <traci_server>
        <remote-port value="8873"/>
    </traci_server>

</configuration>
-->

<detector xmlns:xsi="http://www.w3.org/2001/XMLSchema-instance" xsi:noNamespaceSchemaLocation="http://sumo.dlr.de/xsd/det_e1_file.xsd">
</detector>
