<?xml version="1.0" encoding="UTF-8"?>

<!-- generated on Mon Aug 31 08:41:02 2015 by SUMO Version 0.23.0
<?xml version="1.0" encoding="UTF-8"?>

<configuration xmlns:xsi="http://www.w3.org/2001/XMLSchema-instance" xsi:noNamespaceSchemaLocation="http://sumo.dlr.de/xsd/sumoConfiguration.xsd">

    <input>
        <net-file value="simulations/simple_cross_with_left/gen/cross.net.xml"/>
        <route-files value="simulations/simple_cross_with_left/gen/cross.rou.xml"/>
        <additional-files value="simulations/simple_cross_with_left/cross.det.xml"/>
    </input>

    <output>
        <tripinfo-output value="simulations/simple_cross_with_left/output/tripinfo.xml"/>
        <save-state.prefix value="simulations/simple_cross_with_left/state"/>
    </output>

    <time>
        <begin value="0"/>
    </time>

    <report>
        <verbose value="true"/>
        <no-step-log value="true"/>
    </report>

    <emissions>
        <phemlight-path value="simulations/simple_cross_with_left/./PHEMlight/"/>
    </emissions>

    <traci_server>
        <remote-port value="8873"/>
    </traci_server>

</configuration>
-->

<detector xmlns:xsi="http://www.w3.org/2001/XMLSchema-instance" xsi:noNamespaceSchemaLocation="http://sumo.dlr.de/xsd/det_e1_file.xsd">
   <interval begin="0.00" end="15.00" id="0" nVehContrib="0" flow="0.00" occupancy="0.00" speed="-1.00" length="-1.00" nVehEntered="0"/>
   <interval begin="15.00" end="30.00" id="0" nVehContrib="0" flow="0.00" occupancy="0.00" speed="-1.00" length="-1.00" nVehEntered="0"/>
   <interval begin="30.00" end="45.00" id="0" nVehContrib="0" flow="0.00" occupancy="0.00" speed="-1.00" length="-1.00" nVehEntered="0"/>
   <interval begin="45.00" end="60.00" id="0" nVehContrib="2" flow="480.00" occupancy="9.82" speed="6.79" length="5.00" nVehEntered="2"/>
   <interval begin="60.00" end="75.00" id="0" nVehContrib="0" flow="0.00" occupancy="0.00" speed="-1.00" length="-1.00" nVehEntered="0"/>
   <interval begin="75.00" end="90.00" id="0" nVehContrib="0" flow="0.00" occupancy="0.00" speed="-1.00" length="-1.00" nVehEntered="0"/>
   <interval begin="90.00" end="105.00" id="0" nVehContrib="1" flow="240.00" occupancy="4.62" speed="7.22" length="5.00" nVehEntered="1"/>
   <interval begin="105.00" end="120.00" id="0" nVehContrib="1" flow="240.00" occupancy="4.89" speed="6.82" length="5.00" nVehEntered="1"/>
   <interval begin="120.00" end="135.00" id="0" nVehContrib="1" flow="240.00" occupancy="4.88" speed="6.82" length="5.00" nVehEntered="1"/>
   <interval begin="135.00" end="150.00" id="0" nVehContrib="2" flow="480.00" occupancy="9.85" speed="6.77" length="5.00" nVehEntered="2"/>
   <interval begin="150.00" end="165.00" id="0" nVehContrib="0" flow="0.00" occupancy="0.00" speed="-1.00" length="-1.00" nVehEntered="0"/>
   <interval begin="165.00" end="180.00" id="0" nVehContrib="1" flow="240.00" occupancy="5.14" speed="6.49" length="5.00" nVehEntered="1"/>
   <interval begin="180.00" end="195.00" id="0" nVehContrib="1" flow="240.00" occupancy="5.27" speed="6.32" length="5.00" nVehEntered="1"/>
   <interval begin="195.00" end="210.00" id="0" nVehContrib="0" flow="0.00" occupancy="0.00" speed="-1.00" length="-1.00" nVehEntered="0"/>
   <interval begin="210.00" end="225.00" id="0" nVehContrib="0" flow="0.00" occupancy="0.00" speed="-1.00" length="-1.00" nVehEntered="0"/>
   <interval begin="225.00" end="240.00" id="0" nVehContrib="2" flow="480.00" occupancy="9.93" speed="6.72" length="5.00" nVehEntered="2"/>
   <interval begin="240.00" end="255.00" id="0" nVehContrib="1" flow="240.00" occupancy="4.98" speed="6.77" length="5.00" nVehEntered="1"/>
   <interval begin="255.00" end="270.00" id="0" nVehContrib="3" flow="720.00" occupancy="14.53" speed="6.85" length="5.00" nVehEntered="3"/>
   <interval begin="270.00" end="285.00" id="0" nVehContrib="1" flow="240.00" occupancy="5.18" speed="6.44" length="5.00" nVehEntered="1"/>
   <interval begin="285.00" end="300.00" id="0" nVehContrib="1" flow="240.00" occupancy="8.18" speed="4.08" length="5.00" nVehEntered="1"/>
   <interval begin="300.00" end="315.00" id="0" nVehContrib="0" flow="0.00" occupancy="0.00" speed="-1.00" length="-1.00" nVehEntered="0"/>
   <interval begin="315.00" end="330.00" id="0" nVehContrib="0" flow="0.00" occupancy="0.00" speed="-1.00" length="-1.00" nVehEntered="0"/>
   <interval begin="330.00" end="345.00" id="0" nVehContrib="0" flow="0.00" occupancy="9.76" speed="-1.00" length="-1.00" nVehEntered="0"/>
   <interval begin="345.00" end="360.00" id="0" nVehContrib="4" flow="960.00" occupancy="33.58" speed="3.68" length="5.00" nVehEntered="4"/>
   <interval begin="360.00" end="375.00" id="0" nVehContrib="1" flow="240.00" occupancy="5.05" speed="6.59" length="5.00" nVehEntered="1"/>
   <interval begin="375.00" end="390.00" id="0" nVehContrib="0" flow="0.00" occupancy="0.00" speed="-1.00" length="-1.00" nVehEntered="0"/>
   <interval begin="390.00" end="405.00" id="0" nVehContrib="0" flow="0.00" occupancy="0.00" speed="-1.00" length="-1.00" nVehEntered="0"/>
   <interval begin="405.00" end="420.00" id="0" nVehContrib="2" flow="480.00" occupancy="9.87" speed="6.75" length="5.00" nVehEntered="2"/>
   <interval begin="420.00" end="435.00" id="0" nVehContrib="1" flow="240.00" occupancy="5.28" speed="6.32" length="5.00" nVehEntered="1"/>
   <interval begin="435.00" end="450.00" id="0" nVehContrib="0" flow="0.00" occupancy="0.00" speed="-1.00" length="-1.00" nVehEntered="0"/>
   <interval begin="450.00" end="465.00" id="0" nVehContrib="0" flow="0.00" occupancy="0.00" speed="-1.00" length="-1.00" nVehEntered="0"/>
   <interval begin="465.00" end="480.00" id="0" nVehContrib="0" flow="0.00" occupancy="0.00" speed="-1.00" length="-1.00" nVehEntered="0"/>
   <interval begin="480.00" end="495.00" id="0" nVehContrib="0" flow="0.00" occupancy="0.00" speed="-1.00" length="-1.00" nVehEntered="0"/>
   <interval begin="495.00" end="510.00" id="0" nVehContrib="2" flow="480.00" occupancy="9.76" speed="6.83" length="5.00" nVehEntered="2"/>
   <interval begin="510.00" end="525.00" id="0" nVehContrib="1" flow="240.00" occupancy="4.82" speed="6.91" length="5.00" nVehEntered="1"/>
   <interval begin="525.00" end="540.00" id="0" nVehContrib="0" flow="0.00" occupancy="0.00" speed="-1.00" length="-1.00" nVehEntered="0"/>
   <interval begin="540.00" end="555.00" id="0" nVehContrib="1" flow="240.00" occupancy="5.03" speed="6.63" length="5.00" nVehEntered="1"/>
   <interval begin="555.00" end="570.00" id="0" nVehContrib="0" flow="0.00" occupancy="0.00" speed="-1.00" length="-1.00" nVehEntered="0"/>
   <interval begin="570.00" end="585.00" id="0" nVehContrib="0" flow="0.00" occupancy="0.00" speed="-1.00" length="-1.00" nVehEntered="0"/>
   <interval begin="585.00" end="600.00" id="0" nVehContrib="2" flow="480.00" occupancy="9.49" speed="7.03" length="5.00" nVehEntered="2"/>
   <interval begin="600.00" end="615.00" id="0" nVehContrib="1" flow="240.00" occupancy="4.99" speed="6.68" length="5.00" nVehEntered="1"/>
   <interval begin="615.00" end="630.00" id="0" nVehContrib="2" flow="480.00" occupancy="9.99" speed="6.68" length="5.00" nVehEntered="2"/>
   <interval begin="630.00" end="645.00" id="0" nVehContrib="2" flow="480.00" occupancy="10.18" speed="6.55" length="5.00" nVehEntered="2"/>
   <interval begin="645.00" end="660.00" id="0" nVehContrib="0" flow="0.00" occupancy="0.00" speed="-1.00" length="-1.00" nVehEntered="0"/>
   <interval begin="660.00" end="675.00" id="0" nVehContrib="0" flow="0.00" occupancy="0.00" speed="-1.00" length="-1.00" nVehEntered="0"/>
   <interval begin="675.00" end="690.00" id="0" nVehContrib="0" flow="0.00" occupancy="0.00" speed="-1.00" length="-1.00" nVehEntered="0"/>
   <interval begin="690.00" end="705.00" id="0" nVehContrib="1" flow="240.00" occupancy="4.98" speed="6.69" length="5.00" nVehEntered="1"/>
   <interval begin="705.00" end="720.00" id="0" nVehContrib="2" flow="480.00" occupancy="9.89" speed="6.76" length="5.00" nVehEntered="2"/>
   <interval begin="720.00" end="735.00" id="0" nVehContrib="0" flow="0.00" occupancy="0.00" speed="-1.00" length="-1.00" nVehEntered="0"/>
   <interval begin="735.00" end="750.00" id="0" nVehContrib="2" flow="480.00" occupancy="10.00" speed="6.67" length="5.00" nVehEntered="2"/>
   <interval begin="750.00" end="765.00" id="0" nVehContrib="1" flow="240.00" occupancy="5.17" speed="6.45" length="5.00" nVehEntered="1"/>
   <interval begin="765.00" end="780.00" id="0" nVehContrib="2" flow="480.00" occupancy="9.63" speed="6.92" length="5.00" nVehEntered="2"/>
   <interval begin="780.00" end="795.00" id="0" nVehContrib="1" flow="240.00" occupancy="6.89" speed="4.84" length="5.00" nVehEntered="1"/>
   <interval begin="795.00" end="810.00" id="0" nVehContrib="0" flow="0.00" occupancy="0.00" speed="-1.00" length="-1.00" nVehEntered="0"/>
   <interval begin="810.00" end="825.00" id="0" nVehContrib="0" flow="0.00" occupancy="8.70" speed="-1.00" length="-1.00" nVehEntered="0"/>
   <interval begin="825.00" end="840.00" id="0" nVehContrib="4" flow="960.00" occupancy="31.54" speed="4.73" length="5.00" nVehEntered="4"/>
   <interval begin="840.00" end="855.00" id="0" nVehContrib="1" flow="240.00" occupancy="10.10" speed="6.64" length="5.00" nVehEntered="1"/>
   <interval begin="855.00" end="870.00" id="0" nVehContrib="2" flow="480.00" occupancy="7.20" speed="6.58" length="5.00" nVehEntered="2"/>
   <interval begin="870.00" end="885.00" id="0" nVehContrib="3" flow="720.00" occupancy="15.62" speed="5.85" length="5.00" nVehEntered="3"/>
   <interval begin="885.00" end="900.00" id="0" nVehContrib="0" flow="0.00" occupancy="0.00" speed="-1.00" length="-1.00" nVehEntered="0"/>
   <interval begin="900.00" end="915.00" id="0" nVehContrib="0" flow="0.00" occupancy="0.00" speed="-1.00" length="-1.00" nVehEntered="0"/>
   <interval begin="915.00" end="930.00" id="0" nVehContrib="0" flow="0.00" occupancy="0.00" speed="-1.00" length="-1.00" nVehEntered="0"/>
   <interval begin="930.00" end="945.00" id="0" nVehContrib="0" flow="0.00" occupancy="13.79" speed="-1.00" length="-1.00" nVehEntered="0"/>
   <interval begin="945.00" end="960.00" id="0" nVehContrib="5" flow="1200.00" occupancy="31.17" speed="4.37" length="5.00" nVehEntered="5"/>
   <interval begin="960.00" end="975.00" id="0" nVehContrib="2" flow="480.00" occupancy="10.24" speed="6.51" length="5.00" nVehEntered="2"/>
   <interval begin="975.00" end="990.00" id="0" nVehContrib="0" flow="0.00" occupancy="0.00" speed="-1.00" length="-1.00" nVehEntered="0"/>
   <interval begin="990.00" end="1005.00" id="0" nVehContrib="1" flow="240.00" occupancy="4.94" speed="6.75" length="5.00" nVehEntered="1"/>
   <interval begin="1005.00" end="1020.00" id="0" nVehContrib="0" flow="0.00" occupancy="0.00" speed="-1.00" length="-1.00" nVehEntered="0"/>
   <interval begin="1020.00" end="1035.00" id="0" nVehContrib="0" flow="0.00" occupancy="0.00" speed="-1.00" length="-1.00" nVehEntered="0"/>
   <interval begin="1035.00" end="1050.00" id="0" nVehContrib="0" flow="0.00" occupancy="0.00" speed="-1.00" length="-1.00" nVehEntered="0"/>
   <interval begin="1050.00" end="1065.00" id="0" nVehContrib="0" flow="0.00" occupancy="0.00" speed="-1.00" length="-1.00" nVehEntered="0"/>
   <interval begin="1065.00" end="1080.00" id="0" nVehContrib="0" flow="0.00" occupancy="0.00" speed="-1.00" length="-1.00" nVehEntered="0"/>
   <interval begin="1080.00" end="1095.00" id="0" nVehContrib="0" flow="0.00" occupancy="0.00" speed="-1.00" length="-1.00" nVehEntered="0"/>
   <interval begin="1095.00" end="1110.00" id="0" nVehContrib="0" flow="0.00" occupancy="0.00" speed="-1.00" length="-1.00" nVehEntered="0"/>
   <interval begin="1110.00" end="1125.00" id="0" nVehContrib="0" flow="0.00" occupancy="0.00" speed="-1.00" length="-1.00" nVehEntered="0"/>
   <interval begin="1125.00" end="1140.00" id="0" nVehContrib="0" flow="0.00" occupancy="0.00" speed="-1.00" length="-1.00" nVehEntered="0"/>
   <interval begin="1140.00" end="1155.00" id="0" nVehContrib="0" flow="0.00" occupancy="0.00" speed="-1.00" length="-1.00" nVehEntered="0"/>
   <interval begin="1155.00" end="1170.00" id="0" nVehContrib="0" flow="0.00" occupancy="0.00" speed="-1.00" length="-1.00" nVehEntered="0"/>
   <interval begin="1170.00" end="1185.00" id="0" nVehContrib="0" flow="0.00" occupancy="0.00" speed="-1.00" length="-1.00" nVehEntered="0"/>
   <interval begin="1185.00" end="1200.00" id="0" nVehContrib="0" flow="0.00" occupancy="0.00" speed="-1.00" length="-1.00" nVehEntered="0"/>
   <interval begin="1200.00" end="1215.00" id="0" nVehContrib="0" flow="0.00" occupancy="0.00" speed="-1.00" length="-1.00" nVehEntered="0"/>
   <interval begin="1215.00" end="1230.00" id="0" nVehContrib="0" flow="0.00" occupancy="0.00" speed="-1.00" length="-1.00" nVehEntered="0"/>
   <interval begin="1230.00" end="1240.00" id="0" nVehContrib="0" flow="0.00" occupancy="0.00" speed="-1.00" length="-1.00" nVehEntered="0"/>
</detector>
