<?xml version="1.0" encoding="UTF-8"?>

<!-- generated on Mon Aug 31 08:41:02 2015 by SUMO Version 0.23.0
<?xml version="1.0" encoding="UTF-8"?>

<configuration xmlns:xsi="http://www.w3.org/2001/XMLSchema-instance" xsi:noNamespaceSchemaLocation="http://sumo.dlr.de/xsd/sumoConfiguration.xsd">

    <input>
        <net-file value="simulations/simple_cross_with_left/gen/cross.net.xml"/>
        <route-files value="simulations/simple_cross_with_left/gen/cross.rou.xml"/>
        <additional-files value="simulations/simple_cross_with_left/cross.det.xml"/>
    </input>

    <output>
        <tripinfo-output value="simulations/simple_cross_with_left/output/tripinfo.xml"/>
        <save-state.prefix value="simulations/simple_cross_with_left/state"/>
    </output>

    <time>
        <begin value="0"/>
    </time>

    <report>
        <verbose value="true"/>
        <no-step-log value="true"/>
    </report>

    <emissions>
        <phemlight-path value="simulations/simple_cross_with_left/./PHEMlight/"/>
    </emissions>

    <traci_server>
        <remote-port value="8873"/>
    </traci_server>

</configuration>
-->

<tripinfos xmlns:xsi="http://www.w3.org/2001/XMLSchema-instance" xsi:noNamespaceSchemaLocation="http://sumo.dlr.de/xsd/tripinfo_file.xsd">
    <tripinfo id="left_0" depart="0.00" departLane="2i_0" departPos="5.10" departSpeed="0.00" departDelay="0.00" arrival="51.00" arrivalLane="1o_0" arrivalPos="91.95" arrivalSpeed="11.55" duration="51.00" routeLength="195.31" waitSteps="15" timeLoss="36.67" rerouteNo="0" devices="tripinfo_left_0" vType="type1" vaporized=""/>
    <tripinfo id="left_3" depart="5.00" departLane="2i_0" departPos="5.10" departSpeed="0.00" departDelay="1.00" arrival="53.00" arrivalLane="1o_0" arrivalPos="91.95" arrivalSpeed="11.68" duration="48.00" routeLength="195.31" waitSteps="9" timeLoss="33.86" rerouteNo="0" devices="tripinfo_left_3" vType="type1" vaporized=""/>
    <tripinfo id="left_5" depart="11.00" departLane="2i_0" departPos="5.10" departSpeed="0.00" departDelay="1.00" arrival="55.00" arrivalLane="1o_0" arrivalPos="91.95" arrivalSpeed="12.12" duration="44.00" routeLength="195.31" waitSteps="8" timeLoss="29.62" rerouteNo="0" devices="tripinfo_left_5" vType="type1" vaporized=""/>
    <tripinfo id="left_13" depart="37.00" departLane="2i_0" departPos="5.10" departSpeed="0.00" departDelay="1.00" arrival="63.00" arrivalLane="1o_0" arrivalPos="91.95" arrivalSpeed="13.69" duration="26.00" routeLength="195.31" waitSteps="0" timeLoss="11.34" rerouteNo="0" devices="tripinfo_left_13" vType="type1" vaporized=""/>
    <tripinfo id="right_left_1" depart="0.00" departLane="1i_0" departPos="5.10" departSpeed="0.00" departDelay="0.00" arrival="80.00" arrivalLane="4o_0" arrivalPos="91.95" arrivalSpeed="11.34" duration="80.00" routeLength="188.01" waitSteps="44" timeLoss="65.85" rerouteNo="0" devices="tripinfo_right_left_1" vType="type1" vaporized=""/>
    <tripinfo id="left_left_11" depart="32.00" departLane="2i_0" departPos="5.10" departSpeed="0.00" departDelay="0.00" arrival="82.00" arrivalLane="3o_0" arrivalPos="91.95" arrivalSpeed="11.67" duration="50.00" routeLength="188.01" waitSteps="12" timeLoss="35.16" rerouteNo="0" devices="tripinfo_left_left_11" vType="type1" vaporized=""/>
    <tripinfo id="right_left_6" depart="11.00" departLane="1i_0" departPos="5.10" departSpeed="0.00" departDelay="0.00" arrival="83.00" arrivalLane="4o_0" arrivalPos="91.95" arrivalSpeed="11.72" duration="72.00" routeLength="188.01" waitSteps="36" timeLoss="57.35" rerouteNo="0" devices="tripinfo_right_left_6" vType="type1" vaporized=""/>
    <tripinfo id="right_left_7" depart="16.00" departLane="1i_0" departPos="5.10" departSpeed="0.00" departDelay="2.00" arrival="85.00" arrivalLane="4o_0" arrivalPos="91.95" arrivalSpeed="11.37" duration="69.00" routeLength="188.01" waitSteps="33" timeLoss="54.76" rerouteNo="0" devices="tripinfo_right_left_7" vType="type1" vaporized=""/>
    <tripinfo id="right_left_14" depart="39.00" departLane="1i_0" departPos="5.10" departSpeed="0.00" departDelay="0.00" arrival="87.00" arrivalLane="4o_0" arrivalPos="91.95" arrivalSpeed="12.05" duration="48.00" routeLength="188.01" waitSteps="10" timeLoss="33.53" rerouteNo="0" devices="tripinfo_right_left_14" vType="type1" vaporized=""/>
    <tripinfo id="left_left_23" depart="64.00" departLane="2i_0" departPos="5.10" departSpeed="0.00" departDelay="4.00" arrival="90.00" arrivalLane="3o_0" arrivalPos="91.95" arrivalSpeed="13.51" duration="26.00" routeLength="188.01" waitSteps="0" timeLoss="11.56" rerouteNo="0" devices="tripinfo_left_left_23" vType="type1" vaporized=""/>
    <tripinfo id="left_left_24" depart="70.00" departLane="2i_0" departPos="5.10" departSpeed="0.00" departDelay="9.00" arrival="95.00" arrivalLane="3o_0" arrivalPos="91.95" arrivalSpeed="13.81" duration="25.00" routeLength="188.01" waitSteps="0" timeLoss="10.80" rerouteNo="0" devices="tripinfo_left_left_24" vType="type1" vaporized=""/>
    <tripinfo id="down_12" depart="35.00" departLane="4i_0" departPos="5.10" departSpeed="0.00" departDelay="0.00" arrival="110.00" arrivalLane="3o_0" arrivalPos="91.95" arrivalSpeed="11.39" duration="75.00" routeLength="195.31" waitSteps="39" timeLoss="60.82" rerouteNo="0" devices="tripinfo_down_12" vType="type1" vaporized=""/>
    <tripinfo id="up_2" depart="1.00" departLane="3i_0" departPos="5.10" departSpeed="0.00" departDelay="0.00" arrival="111.00" arrivalLane="4o_0" arrivalPos="91.95" arrivalSpeed="12.35" duration="110.00" routeLength="195.31" waitSteps="74" timeLoss="95.02" rerouteNo="0" devices="tripinfo_up_2" vType="type1" vaporized=""/>
    <tripinfo id="down_18" depart="48.00" departLane="4i_0" departPos="5.10" departSpeed="0.00" departDelay="0.00" arrival="113.00" arrivalLane="3o_0" arrivalPos="91.95" arrivalSpeed="12.24" duration="65.00" routeLength="195.31" waitSteps="28" timeLoss="50.12" rerouteNo="0" devices="tripinfo_down_18" vType="type1" vaporized=""/>
    <tripinfo id="up_4" depart="7.00" departLane="3i_0" departPos="5.10" departSpeed="0.00" departDelay="0.00" arrival="113.00" arrivalLane="4o_0" arrivalPos="91.95" arrivalSpeed="11.85" duration="106.00" routeLength="195.31" waitSteps="68" timeLoss="91.66" rerouteNo="0" devices="tripinfo_up_4" vType="type1" vaporized=""/>
    <tripinfo id="down_33" depart="81.00" departLane="4i_0" departPos="5.10" departSpeed="0.00" departDelay="0.00" arrival="115.00" arrivalLane="3o_0" arrivalPos="91.95" arrivalSpeed="12.06" duration="34.00" routeLength="195.31" waitSteps="0" timeLoss="19.29" rerouteNo="0" devices="tripinfo_down_33" vType="type1" vaporized=""/>
    <tripinfo id="up_9" depart="15.00" departLane="3i_0" departPos="5.10" departSpeed="0.00" departDelay="0.00" arrival="115.00" arrivalLane="4o_0" arrivalPos="91.95" arrivalSpeed="12.03" duration="100.00" routeLength="195.31" waitSteps="63" timeLoss="85.66" rerouteNo="0" devices="tripinfo_up_9" vType="type1" vaporized=""/>
    <tripinfo id="up_20" depart="54.00" departLane="3i_0" departPos="5.10" departSpeed="0.00" departDelay="2.00" arrival="118.00" arrivalLane="4o_0" arrivalPos="91.95" arrivalSpeed="12.76" duration="64.00" routeLength="195.31" waitSteps="25" timeLoss="49.00" rerouteNo="0" devices="tripinfo_up_20" vType="type1" vaporized=""/>
    <tripinfo id="up_21" depart="59.00" departLane="3i_0" departPos="5.10" departSpeed="0.00" departDelay="6.00" arrival="119.00" arrivalLane="4o_0" arrivalPos="91.95" arrivalSpeed="12.60" duration="60.00" routeLength="195.31" waitSteps="23" timeLoss="45.67" rerouteNo="0" devices="tripinfo_up_21" vType="type1" vaporized=""/>
    <tripinfo id="up_32" depart="80.00" departLane="3i_0" departPos="5.10" departSpeed="0.00" departDelay="0.00" arrival="121.00" arrivalLane="4o_0" arrivalPos="91.95" arrivalSpeed="12.53" duration="41.00" routeLength="195.31" waitSteps="5" timeLoss="26.61" rerouteNo="0" devices="tripinfo_up_32" vType="type1" vaporized=""/>
    <tripinfo id="down_40" depart="102.00" departLane="4i_0" departPos="5.10" departSpeed="0.00" departDelay="0.00" arrival="128.00" arrivalLane="3o_0" arrivalPos="91.95" arrivalSpeed="13.71" duration="26.00" routeLength="195.31" waitSteps="0" timeLoss="11.45" rerouteNo="0" devices="tripinfo_down_40" vType="type1" vaporized=""/>
    <tripinfo id="down_left_8" depart="14.00" departLane="4i_0" departPos="5.10" departSpeed="0.00" departDelay="0.00" arrival="141.00" arrivalLane="2o_0" arrivalPos="91.95" arrivalSpeed="12.19" duration="127.00" routeLength="188.01" waitSteps="91" timeLoss="112.23" rerouteNo="0" devices="tripinfo_down_left_8" vType="type1" vaporized=""/>
    <tripinfo id="up_left_10" depart="24.00" departLane="3i_0" departPos="5.10" departSpeed="0.00" departDelay="0.00" arrival="141.00" arrivalLane="1o_0" arrivalPos="91.95" arrivalSpeed="11.61" duration="117.00" routeLength="188.01" waitSteps="79" timeLoss="102.68" rerouteNo="0" devices="tripinfo_up_left_10" vType="type1" vaporized=""/>
    <tripinfo id="down_left_15" depart="41.00" departLane="4i_0" departPos="5.10" departSpeed="0.00" departDelay="0.00" arrival="143.00" arrivalLane="2o_0" arrivalPos="91.95" arrivalSpeed="11.82" duration="102.00" routeLength="188.01" waitSteps="65" timeLoss="87.35" rerouteNo="0" devices="tripinfo_down_left_15" vType="type1" vaporized=""/>
    <tripinfo id="up_left_17" depart="45.00" departLane="3i_0" departPos="5.10" departSpeed="0.00" departDelay="0.00" arrival="144.00" arrivalLane="1o_0" arrivalPos="91.95" arrivalSpeed="11.41" duration="99.00" routeLength="188.01" waitSteps="61" timeLoss="84.58" rerouteNo="0" devices="tripinfo_up_left_17" vType="type1" vaporized=""/>
    <tripinfo id="down_left_26" depart="63.00" departLane="4i_0" departPos="5.10" departSpeed="0.00" departDelay="0.00" arrival="145.00" arrivalLane="2o_0" arrivalPos="91.95" arrivalSpeed="11.81" duration="82.00" routeLength="188.01" waitSteps="45" timeLoss="67.12" rerouteNo="0" devices="tripinfo_down_left_26" vType="type1" vaporized=""/>
    <tripinfo id="up_left_19" depart="50.00" departLane="3i_0" departPos="5.10" departSpeed="0.00" departDelay="0.00" arrival="146.00" arrivalLane="1o_0" arrivalPos="91.95" arrivalSpeed="11.77" duration="96.00" routeLength="188.01" waitSteps="59" timeLoss="81.48" rerouteNo="0" devices="tripinfo_up_left_19" vType="type1" vaporized=""/>
    <tripinfo id="down_left_30" depart="73.00" departLane="4i_0" departPos="5.10" departSpeed="0.00" departDelay="0.00" arrival="147.00" arrivalLane="2o_0" arrivalPos="91.95" arrivalSpeed="12.14" duration="74.00" routeLength="188.01" waitSteps="36" timeLoss="59.61" rerouteNo="0" devices="tripinfo_down_left_30" vType="type1" vaporized=""/>
    <tripinfo id="up_left_28" depart="66.00" departLane="3i_0" departPos="5.10" departSpeed="0.00" departDelay="0.00" arrival="148.00" arrivalLane="1o_0" arrivalPos="91.95" arrivalSpeed="12.37" duration="82.00" routeLength="188.01" waitSteps="44" timeLoss="67.21" rerouteNo="0" devices="tripinfo_up_left_28" vType="type1" vaporized=""/>
    <tripinfo id="down_left_46" depart="119.00" departLane="4i_0" departPos="5.10" departSpeed="0.00" departDelay="0.00" arrival="149.00" arrivalLane="2o_0" arrivalPos="91.95" arrivalSpeed="12.86" duration="30.00" routeLength="188.01" waitSteps="0" timeLoss="15.32" rerouteNo="0" devices="tripinfo_down_left_46" vType="type1" vaporized=""/>
    <tripinfo id="up_left_35" depart="86.00" departLane="3i_0" departPos="5.10" departSpeed="0.00" departDelay="0.00" arrival="150.00" arrivalLane="1o_0" arrivalPos="91.95" arrivalSpeed="12.88" duration="64.00" routeLength="188.01" waitSteps="28" timeLoss="49.30" rerouteNo="0" devices="tripinfo_up_left_35" vType="type1" vaporized=""/>
    <tripinfo id="up_left_53" depart="130.00" departLane="3i_0" departPos="5.10" departSpeed="0.00" departDelay="2.00" arrival="156.00" arrivalLane="1o_0" arrivalPos="91.95" arrivalSpeed="13.89" duration="26.00" routeLength="188.01" waitSteps="1" timeLoss="11.22" rerouteNo="0" devices="tripinfo_up_left_53" vType="type1" vaporized=""/>
    <tripinfo id="left_22" depart="59.00" departLane="2i_0" departPos="5.10" departSpeed="0.00" departDelay="0.00" arrival="171.00" arrivalLane="1o_0" arrivalPos="91.95" arrivalSpeed="11.25" duration="112.00" routeLength="195.31" waitSteps="75" timeLoss="97.37" rerouteNo="0" devices="tripinfo_left_22" vType="type1" vaporized=""/>
    <tripinfo id="right_16" depart="45.00" departLane="1i_0" departPos="5.10" departSpeed="0.00" departDelay="0.00" arrival="171.00" arrivalLane="2o_0" arrivalPos="91.95" arrivalSpeed="11.18" duration="126.00" routeLength="195.31" waitSteps="89" timeLoss="111.61" rerouteNo="0" devices="tripinfo_right_16" vType="type1" vaporized=""/>
    <tripinfo id="left_38" depart="91.00" departLane="2i_0" departPos="5.10" departSpeed="0.00" departDelay="0.00" arrival="173.00" arrivalLane="1o_0" arrivalPos="91.95" arrivalSpeed="11.72" duration="82.00" routeLength="195.31" waitSteps="46" timeLoss="67.74" rerouteNo="0" devices="tripinfo_left_38" vType="type1" vaporized=""/>
    <tripinfo id="right_25" depart="62.00" departLane="1i_0" departPos="5.10" departSpeed="0.00" departDelay="0.00" arrival="174.00" arrivalLane="2o_0" arrivalPos="91.95" arrivalSpeed="11.47" duration="112.00" routeLength="195.31" waitSteps="74" timeLoss="97.27" rerouteNo="0" devices="tripinfo_right_25" vType="type1" vaporized=""/>
    <tripinfo id="left_39" depart="101.00" departLane="2i_0" departPos="5.10" departSpeed="0.00" departDelay="0.00" arrival="176.00" arrivalLane="1o_0" arrivalPos="91.95" arrivalSpeed="11.97" duration="75.00" routeLength="195.31" waitSteps="36" timeLoss="60.11" rerouteNo="0" devices="tripinfo_left_39" vType="type1" vaporized=""/>
    <tripinfo id="right_27" depart="67.00" departLane="1i_0" departPos="5.10" departSpeed="0.00" departDelay="2.00" arrival="176.00" arrivalLane="2o_0" arrivalPos="91.95" arrivalSpeed="11.86" duration="109.00" routeLength="195.31" waitSteps="71" timeLoss="94.25" rerouteNo="0" devices="tripinfo_right_27" vType="type1" vaporized=""/>
    <tripinfo id="left_42" depart="108.00" departLane="2i_0" departPos="5.10" departSpeed="0.00" departDelay="0.00" arrival="177.00" arrivalLane="1o_0" arrivalPos="91.95" arrivalSpeed="11.84" duration="69.00" routeLength="195.31" waitSteps="31" timeLoss="54.75" rerouteNo="0" devices="tripinfo_left_42" vType="type1" vaporized=""/>
    <tripinfo id="right_37" depart="94.00" departLane="1i_0" departPos="5.10" departSpeed="0.00" departDelay="4.00" arrival="178.00" arrivalLane="2o_0" arrivalPos="91.95" arrivalSpeed="11.62" duration="84.00" routeLength="195.31" waitSteps="46" timeLoss="69.67" rerouteNo="0" devices="tripinfo_right_37" vType="type1" vaporized=""/>
    <tripinfo id="left_44" depart="115.00" departLane="2i_0" departPos="5.10" departSpeed="0.00" departDelay="0.00" arrival="179.00" arrivalLane="1o_0" arrivalPos="91.95" arrivalSpeed="12.07" duration="64.00" routeLength="195.31" waitSteps="26" timeLoss="49.53" rerouteNo="0" devices="tripinfo_left_44" vType="type1" vaporized=""/>
    <tripinfo id="right_60" depart="145.00" departLane="1i_0" departPos="5.10" departSpeed="0.00" departDelay="0.00" arrival="180.00" arrivalLane="2o_0" arrivalPos="91.95" arrivalSpeed="11.73" duration="35.00" routeLength="195.31" waitSteps="0" timeLoss="20.68" rerouteNo="0" devices="tripinfo_right_60" vType="type1" vaporized=""/>
    <tripinfo id="left_51" depart="130.00" departLane="2i_0" departPos="5.10" departSpeed="0.00" departDelay="2.00" arrival="181.00" arrivalLane="1o_0" arrivalPos="91.95" arrivalSpeed="12.39" duration="51.00" routeLength="195.31" waitSteps="14" timeLoss="36.27" rerouteNo="0" devices="tripinfo_left_51" vType="type1" vaporized=""/>
    <tripinfo id="right_62" depart="150.00" departLane="1i_0" departPos="5.10" departSpeed="0.00" departDelay="3.00" arrival="182.00" arrivalLane="2o_0" arrivalPos="91.95" arrivalSpeed="12.01" duration="32.00" routeLength="195.31" waitSteps="0" timeLoss="17.47" rerouteNo="0" devices="tripinfo_right_62" vType="type1" vaporized=""/>
    <tripinfo id="left_54" depart="135.00" departLane="2i_0" departPos="5.10" departSpeed="0.00" departDelay="5.00" arrival="183.00" arrivalLane="1o_0" arrivalPos="91.95" arrivalSpeed="13.81" duration="48.00" routeLength="195.31" waitSteps="10" timeLoss="32.96" rerouteNo="0" devices="tripinfo_left_54" vType="type1" vaporized=""/>
    <tripinfo id="left_63" depart="149.00" departLane="2i_0" departPos="5.10" departSpeed="0.00" departDelay="2.00" arrival="184.00" arrivalLane="1o_0" arrivalPos="91.95" arrivalSpeed="13.81" duration="35.00" routeLength="195.31" waitSteps="0" timeLoss="20.55" rerouteNo="0" devices="tripinfo_left_63" vType="type1" vaporized=""/>
    <tripinfo id="left_64" depart="154.00" departLane="2i_0" departPos="5.10" departSpeed="0.00" departDelay="6.00" arrival="186.00" arrivalLane="1o_0" arrivalPos="91.95" arrivalSpeed="13.64" duration="32.00" routeLength="195.31" waitSteps="0" timeLoss="17.22" rerouteNo="0" devices="tripinfo_left_64" vType="type1" vaporized=""/>
    <tripinfo id="left_65" depart="159.00" departLane="2i_0" departPos="5.10" departSpeed="0.00" departDelay="0.00" arrival="188.00" arrivalLane="1o_0" arrivalPos="91.95" arrivalSpeed="13.72" duration="29.00" routeLength="195.31" waitSteps="0" timeLoss="14.01" rerouteNo="0" devices="tripinfo_left_65" vType="type1" vaporized=""/>
    <tripinfo id="right_left_34" depart="84.00" departLane="1i_0" departPos="5.10" departSpeed="0.00" departDelay="0.00" arrival="201.00" arrivalLane="4o_0" arrivalPos="91.95" arrivalSpeed="12.15" duration="117.00" routeLength="188.01" waitSteps="80" timeLoss="102.22" rerouteNo="0" devices="tripinfo_right_left_34" vType="type1" vaporized=""/>
    <tripinfo id="left_left_29" depart="75.00" departLane="2i_0" departPos="5.10" departSpeed="0.00" departDelay="3.00" arrival="202.00" arrivalLane="3o_0" arrivalPos="91.95" arrivalSpeed="11.41" duration="127.00" routeLength="188.01" waitSteps="89" timeLoss="112.27" rerouteNo="0" devices="tripinfo_left_left_29" vType="type1" vaporized=""/>
    <tripinfo id="right_left_36" depart="89.00" departLane="1i_0" departPos="5.10" departSpeed="0.00" departDelay="1.00" arrival="203.00" arrivalLane="4o_0" arrivalPos="91.95" arrivalSpeed="11.97" duration="114.00" routeLength="188.01" waitSteps="77" timeLoss="99.14" rerouteNo="0" devices="tripinfo_right_left_36" vType="type1" vaporized=""/>
    <tripinfo id="left_left_31" depart="79.00" departLane="2i_0" departPos="5.10" departSpeed="0.00" departDelay="1.00" arrival="204.00" arrivalLane="3o_0" arrivalPos="91.95" arrivalSpeed="12.06" duration="125.00" routeLength="188.01" waitSteps="85" timeLoss="110.08" rerouteNo="0" devices="tripinfo_left_left_31" vType="type1" vaporized=""/>
    <tripinfo id="right_left_45" depart="118.00" departLane="1i_0" departPos="5.10" departSpeed="0.00" departDelay="0.00" arrival="205.00" arrivalLane="4o_0" arrivalPos="91.95" arrivalSpeed="12.01" duration="87.00" routeLength="188.01" waitSteps="51" timeLoss="72.39" rerouteNo="0" devices="tripinfo_right_left_45" vType="type1" vaporized=""/>
    <tripinfo id="left_left_49" depart="125.00" departLane="2i_0" departPos="5.10" departSpeed="0.00" departDelay="0.00" arrival="205.00" arrivalLane="3o_0" arrivalPos="91.95" arrivalSpeed="11.41" duration="80.00" routeLength="188.01" waitSteps="43" timeLoss="65.88" rerouteNo="0" devices="tripinfo_left_left_49" vType="type1" vaporized=""/>
    <tripinfo id="left_left_57" depart="140.00" departLane="2i_0" departPos="5.10" departSpeed="0.00" departDelay="1.00" arrival="207.00" arrivalLane="3o_0" arrivalPos="91.95" arrivalSpeed="11.76" duration="67.00" routeLength="188.01" waitSteps="29" timeLoss="52.66" rerouteNo="0" devices="tripinfo_left_left_57" vType="type1" vaporized=""/>
    <tripinfo id="left_left_58" depart="145.00" departLane="2i_0" departPos="5.10" departSpeed="0.00" departDelay="5.00" arrival="210.00" arrivalLane="3o_0" arrivalPos="91.95" arrivalSpeed="12.41" duration="65.00" routeLength="188.01" waitSteps="25" timeLoss="50.43" rerouteNo="0" devices="tripinfo_left_left_58" vType="type1" vaporized=""/>
    <tripinfo id="left_left_67" depart="170.00" departLane="2i_0" departPos="5.10" departSpeed="0.00" departDelay="0.00" arrival="212.00" arrivalLane="3o_0" arrivalPos="91.95" arrivalSpeed="13.18" duration="42.00" routeLength="188.01" waitSteps="5" timeLoss="27.37" rerouteNo="0" devices="tripinfo_left_left_67" vType="type1" vaporized=""/>
    <tripinfo id="left_left_74" depart="184.00" departLane="2i_0" departPos="5.10" departSpeed="0.00" departDelay="7.00" arrival="214.00" arrivalLane="3o_0" arrivalPos="91.95" arrivalSpeed="13.52" duration="30.00" routeLength="188.01" waitSteps="0" timeLoss="15.08" rerouteNo="0" devices="tripinfo_left_left_74" vType="type1" vaporized=""/>
    <tripinfo id="down_43" depart="109.00" departLane="4i_0" departPos="5.10" departSpeed="0.00" departDelay="0.00" arrival="230.00" arrivalLane="3o_0" arrivalPos="91.95" arrivalSpeed="11.09" duration="121.00" routeLength="195.31" waitSteps="86" timeLoss="106.74" rerouteNo="0" devices="tripinfo_down_43" vType="type1" vaporized=""/>
    <tripinfo id="up_41" depart="105.00" departLane="3i_0" departPos="5.10" departSpeed="0.00" departDelay="0.00" arrival="231.00" arrivalLane="4o_0" arrivalPos="91.95" arrivalSpeed="11.36" duration="126.00" routeLength="195.31" waitSteps="89" timeLoss="111.59" rerouteNo="0" devices="tripinfo_up_41" vType="type1" vaporized=""/>
    <tripinfo id="down_50" depart="127.00" departLane="4i_0" departPos="5.10" departSpeed="0.00" departDelay="0.00" arrival="233.00" arrivalLane="3o_0" arrivalPos="91.95" arrivalSpeed="11.83" duration="106.00" routeLength="195.31" waitSteps="69" timeLoss="91.69" rerouteNo="0" devices="tripinfo_down_50" vType="type1" vaporized=""/>
    <tripinfo id="up_47" depart="120.00" departLane="3i_0" departPos="5.10" departSpeed="0.00" departDelay="0.00" arrival="234.00" arrivalLane="4o_0" arrivalPos="91.95" arrivalSpeed="11.99" duration="114.00" routeLength="195.31" waitSteps="76" timeLoss="99.01" rerouteNo="0" devices="tripinfo_up_47" vType="type1" vaporized=""/>
    <tripinfo id="down_52" depart="132.00" departLane="4i_0" departPos="5.10" departSpeed="0.00" departDelay="4.00" arrival="235.00" arrivalLane="3o_0" arrivalPos="91.95" arrivalSpeed="11.72" duration="103.00" routeLength="195.31" waitSteps="66" timeLoss="88.70" rerouteNo="0" devices="tripinfo_down_52" vType="type1" vaporized=""/>
    <tripinfo id="up_48" depart="125.00" departLane="3i_0" departPos="5.10" departSpeed="0.00" departDelay="2.00" arrival="235.00" arrivalLane="4o_0" arrivalPos="91.95" arrivalSpeed="11.71" duration="110.00" routeLength="195.31" waitSteps="73" timeLoss="95.74" rerouteNo="0" devices="tripinfo_up_48" vType="type1" vaporized=""/>
    <tripinfo id="down_66" depart="164.00" departLane="4i_0" departPos="5.10" departSpeed="0.00" departDelay="0.00" arrival="237.00" arrivalLane="3o_0" arrivalPos="91.95" arrivalSpeed="12.30" duration="73.00" routeLength="195.31" waitSteps="35" timeLoss="58.66" rerouteNo="0" devices="tripinfo_down_66" vType="type1" vaporized=""/>
    <tripinfo id="up_56" depart="137.00" departLane="3i_0" departPos="5.10" departSpeed="0.00" departDelay="2.00" arrival="237.00" arrivalLane="4o_0" arrivalPos="91.95" arrivalSpeed="11.94" duration="100.00" routeLength="195.31" waitSteps="63" timeLoss="85.61" rerouteNo="0" devices="tripinfo_up_56" vType="type1" vaporized=""/>
    <tripinfo id="down_75" depart="180.00" departLane="4i_0" departPos="5.10" departSpeed="0.00" departDelay="0.00" arrival="239.00" arrivalLane="3o_0" arrivalPos="91.95" arrivalSpeed="12.37" duration="59.00" routeLength="195.31" waitSteps="22" timeLoss="44.63" rerouteNo="0" devices="tripinfo_down_75" vType="type1" vaporized=""/>
    <tripinfo id="up_59" depart="142.00" departLane="3i_0" departPos="5.10" departSpeed="0.00" departDelay="1.00" arrival="239.00" arrivalLane="4o_0" arrivalPos="91.95" arrivalSpeed="12.62" duration="97.00" routeLength="195.31" waitSteps="60" timeLoss="82.56" rerouteNo="0" devices="tripinfo_up_59" vType="type1" vaporized=""/>
    <tripinfo id="down_90" depart="216.00" departLane="4i_0" departPos="5.10" departSpeed="0.00" departDelay="0.00" arrival="241.00" arrivalLane="3o_0" arrivalPos="91.95" arrivalSpeed="13.76" duration="25.00" routeLength="195.31" waitSteps="0" timeLoss="10.36" rerouteNo="0" devices="tripinfo_down_90" vType="type1" vaporized=""/>
    <tripinfo id="up_68" depart="171.00" departLane="3i_0" departPos="5.10" departSpeed="0.00" departDelay="0.00" arrival="241.00" arrivalLane="4o_0" arrivalPos="91.95" arrivalSpeed="12.95" duration="70.00" routeLength="195.31" waitSteps="33" timeLoss="55.28" rerouteNo="0" devices="tripinfo_up_68" vType="type1" vaporized=""/>
    <tripinfo id="up_73" depart="179.00" departLane="3i_0" departPos="5.10" departSpeed="0.00" departDelay="3.00" arrival="243.00" arrivalLane="4o_0" arrivalPos="91.95" arrivalSpeed="13.06" duration="64.00" routeLength="195.31" waitSteps="28" timeLoss="49.15" rerouteNo="0" devices="tripinfo_up_73" vType="type1" vaporized=""/>
    <tripinfo id="up_91" depart="222.00" departLane="3i_0" departPos="5.10" departSpeed="0.00" departDelay="5.00" arrival="249.00" arrivalLane="4o_0" arrivalPos="91.95" arrivalSpeed="13.79" duration="27.00" routeLength="195.31" waitSteps="0" timeLoss="12.02" rerouteNo="0" devices="tripinfo_up_91" vType="type1" vaporized=""/>
    <tripinfo id="up_left_55" depart="134.00" departLane="3i_0" departPos="5.10" departSpeed="0.00" departDelay="4.00" arrival="260.00" arrivalLane="1o_0" arrivalPos="91.95" arrivalSpeed="11.11" duration="126.00" routeLength="188.01" waitSteps="89" timeLoss="111.89" rerouteNo="0" devices="tripinfo_up_left_55" vType="type1" vaporized=""/>
    <tripinfo id="down_left_61" depart="145.00" departLane="4i_0" departPos="5.10" departSpeed="0.00" departDelay="0.00" arrival="261.00" arrivalLane="2o_0" arrivalPos="91.95" arrivalSpeed="11.40" duration="116.00" routeLength="188.01" waitSteps="79" timeLoss="101.51" rerouteNo="0" devices="tripinfo_down_left_61" vType="type1" vaporized=""/>
    <tripinfo id="up_left_69" depart="175.00" departLane="3i_0" departPos="5.10" departSpeed="0.00" departDelay="3.00" arrival="263.00" arrivalLane="1o_0" arrivalPos="91.95" arrivalSpeed="11.00" duration="88.00" routeLength="188.01" waitSteps="50" timeLoss="74.16" rerouteNo="0" devices="tripinfo_up_left_69" vType="type1" vaporized=""/>
    <tripinfo id="up_left_78" depart="191.00" departLane="3i_0" departPos="5.10" departSpeed="0.00" departDelay="0.00" arrival="265.00" arrivalLane="1o_0" arrivalPos="91.95" arrivalSpeed="11.40" duration="74.00" routeLength="188.01" waitSteps="36" timeLoss="59.73" rerouteNo="0" devices="tripinfo_up_left_78" vType="type1" vaporized=""/>
    <tripinfo id="up_left_85" depart="206.00" departLane="3i_0" departPos="5.10" departSpeed="0.00" departDelay="0.00" arrival="267.00" arrivalLane="1o_0" arrivalPos="91.95" arrivalSpeed="12.72" duration="61.00" routeLength="188.01" waitSteps="25" timeLoss="46.72" rerouteNo="0" devices="tripinfo_up_left_85" vType="type1" vaporized=""/>
    <tripinfo id="up_left_86" depart="210.00" departLane="3i_0" departPos="5.10" departSpeed="0.00" departDelay="2.00" arrival="270.00" arrivalLane="1o_0" arrivalPos="91.95" arrivalSpeed="13.01" duration="60.00" routeLength="188.01" waitSteps="21" timeLoss="45.13" rerouteNo="0" devices="tripinfo_up_left_86" vType="type1" vaporized=""/>
    <tripinfo id="up_left_87" depart="214.00" departLane="3i_0" departPos="5.10" departSpeed="0.00" departDelay="4.00" arrival="271.00" arrivalLane="1o_0" arrivalPos="91.95" arrivalSpeed="13.29" duration="57.00" routeLength="188.01" waitSteps="19" timeLoss="42.85" rerouteNo="0" devices="tripinfo_up_left_87" vType="type1" vaporized=""/>
    <tripinfo id="up_left_89" depart="217.00" departLane="3i_0" departPos="5.10" departSpeed="0.00" departDelay="2.00" arrival="274.00" arrivalLane="1o_0" arrivalPos="91.95" arrivalSpeed="13.63" duration="57.00" routeLength="188.01" waitSteps="20" timeLoss="42.26" rerouteNo="0" devices="tripinfo_up_left_89" vType="type1" vaporized=""/>
    <tripinfo id="up_left_93" depart="227.00" departLane="3i_0" departPos="5.10" departSpeed="0.00" departDelay="3.00" arrival="275.00" arrivalLane="1o_0" arrivalPos="91.95" arrivalSpeed="13.46" duration="48.00" routeLength="188.01" waitSteps="11" timeLoss="33.90" rerouteNo="0" devices="tripinfo_up_left_93" vType="type1" vaporized=""/>
    <tripinfo id="up_left_96" depart="236.00" departLane="3i_0" departPos="5.10" departSpeed="0.00" departDelay="0.00" arrival="278.00" arrivalLane="1o_0" arrivalPos="91.95" arrivalSpeed="13.70" duration="42.00" routeLength="188.01" waitSteps="5" timeLoss="27.08" rerouteNo="0" devices="tripinfo_up_left_96" vType="type1" vaporized=""/>
    <tripinfo id="right_71" depart="175.00" departLane="1i_0" departPos="5.10" departSpeed="0.00" departDelay="0.00" arrival="292.00" arrivalLane="2o_0" arrivalPos="91.95" arrivalSpeed="11.43" duration="117.00" routeLength="195.31" waitSteps="79" timeLoss="102.09" rerouteNo="0" devices="tripinfo_right_71" vType="type1" vaporized=""/>
    <tripinfo id="left_70" depart="174.00" departLane="2i_0" departPos="5.10" departSpeed="0.00" departDelay="0.00" arrival="292.00" arrivalLane="1o_0" arrivalPos="91.95" arrivalSpeed="11.45" duration="118.00" routeLength="195.31" waitSteps="80" timeLoss="103.06" rerouteNo="0" devices="tripinfo_left_70" vType="type1" vaporized=""/>
    <tripinfo id="right_81" depart="200.00" departLane="1i_0" departPos="5.10" departSpeed="0.00" departDelay="0.00" arrival="293.00" arrivalLane="2o_0" arrivalPos="91.95" arrivalSpeed="11.68" duration="93.00" routeLength="195.31" waitSteps="55" timeLoss="78.70" rerouteNo="0" devices="tripinfo_right_81" vType="type1" vaporized=""/>