<?xml version="1.0" encoding="UTF-8"?>

<!-- generated on 04-Nov-15 14:55:32 by SUMO gui Version 0.24.0
<?xml version="1.0" encoding="UTF-8"?>

<configuration xmlns:xsi="http://www.w3.org/2001/XMLSchema-instance" xsi:noNamespaceSchemaLocation="http://sumo.dlr.de/xsd/sumo-gui.exeConfiguration.xsd">

    <input>
        <net-file value="simulations/YigalAlon_Tuval/gen/cross.net.xml"/>
        <route-files value="simulations/YigalAlon_Tuval/gen/cross.rou.xml"/>
        <additional-files value="simulations/YigalAlon_Tuval/cross.det.xml"/>
    </input>

    <output>
        <tripinfo-output value="simulations/YigalAlon_Tuval/output/tripinfo.xml"/>
        <save-state.prefix value="simulations/YigalAlon_Tuval/state"/>
    </output>

    <time>
        <begin value="0"/>
    </time>

    <report>
        <verbose value="true"/>
        <no-step-log value="true"/>
    </report>

    <emissions>
        <phemlight-path value="simulations/YigalAlon_Tuval/./PHEMlight/"/>
    </emissions>

    <traci_server>
        <remote-port value="8873"/>
    </traci_server>

</configuration>
-->

<tripinfos xmlns:xsi="http://www.w3.org/2001/XMLSchema-instance" xsi:noNamespaceSchemaLocation="http://sumo.dlr.de/xsd/tripinfo_file.xsd">
    <tripinfo id="left_0" depart="0.00" departLane="2i_0" departPos="5.10" departSpeed="0.00" departDelay="0.00" arrival="26.00" arrivalLane="1o_0" arrivalPos="95.25" arrivalSpeed="13.75" duration="26.00" routeLength="195.45" waitSteps="0" timeLoss="11.09" rerouteNo="0" devices="tripinfo_left_0" vType="type1" vaporized=""/>
    <tripinfo id="left_left_1" depart="5.00" departLane="2i_0" departPos="5.10" departSpeed="0.00" departDelay="5.00" arrival="30.00" arrivalLane="3o_0" arrivalPos="88.65" arrivalSpeed="13.75" duration="25.00" routeLength="181.24" waitSteps="0" timeLoss="10.87" rerouteNo="0" devices="tripinfo_left_left_1" vType="type1" vaporized=""/>
    <tripinfo id="left_2" depart="8.00" departLane="2i_0" departPos="5.10" departSpeed="0.00" departDelay="6.00" arrival="34.00" arrivalLane="1o_0" arrivalPos="95.25" arrivalSpeed="13.52" duration="26.00" routeLength="195.45" waitSteps="0" timeLoss="11.03" rerouteNo="0" devices="tripinfo_left_2" vType="type1" vaporized=""/>
    <tripinfo id="left_left_3" depart="13.00" departLane="2i_0" departPos="5.10" departSpeed="0.00" departDelay="11.00" arrival="38.00" arrivalLane="3o_0" arrivalPos="88.65" arrivalSpeed="13.84" duration="25.00" routeLength="181.24" waitSteps="0" timeLoss="10.87" rerouteNo="0" devices="tripinfo_left_left_3" vType="type1" vaporized=""/>
    <tripinfo id="left_4" depart="15.00" departLane="2i_0" departPos="5.10" departSpeed="0.00" departDelay="12.00" arrival="40.00" arrivalLane="1o_0" arrivalPos="95.25" arrivalSpeed="13.85" duration="25.00" routeLength="195.45" waitSteps="0" timeLoss="10.31" rerouteNo="0" devices="tripinfo_left_4" vType="type1" vaporized=""/>
    <tripinfo id="left_5" depart="20.00" departLane="2i_0" departPos="5.10" departSpeed="0.00" departDelay="16.00" arrival="45.00" arrivalLane="1o_0" arrivalPos="95.25" arrivalSpeed="13.73" duration="25.00" routeLength="195.45" waitSteps="0" timeLoss="10.45" rerouteNo="0" devices="tripinfo_left_5" vType="type1" vaporized=""/>
    <tripinfo id="left_6" depart="25.00" departLane="2i_0" departPos="5.10" departSpeed="0.00" departDelay="17.00" arrival="51.00" arrivalLane="1o_0" arrivalPos="95.25" arrivalSpeed="13.88" duration="26.00" routeLength="195.45" waitSteps="0" timeLoss="11.57" rerouteNo="0" devices="tripinfo_left_6" vType="type1" vaporized=""/>
    <tripinfo id="left_7" depart="30.00" departLane="2i_0" departPos="5.10" departSpeed="0.00" departDelay="20.00" arrival="56.00" arrivalLane="1o_0" arrivalPos="95.25" arrivalSpeed="13.71" duration="26.00" routeLength="195.45" waitSteps="0" timeLoss="11.50" rerouteNo="0" devices="tripinfo_left_7" vType="type1" vaporized=""/>
    <tripinfo id="left_left_8" depart="36.00" departLane="2i_0" departPos="5.10" departSpeed="0.00" departDelay="26.00" arrival="62.00" arrivalLane="3o_0" arrivalPos="88.65" arrivalSpeed="13.66" duration="26.00" routeLength="181.24" waitSteps="0" timeLoss="11.42" rerouteNo="0" devices="tripinfo_left_left_8" vType="type1" vaporized=""/>
    <tripinfo id="left_9" depart="39.00" departLane="2i_0" departPos="5.10" departSpeed="0.00" departDelay="28.00" arrival="64.00" arrivalLane="1o_0" arrivalPos="95.25" arrivalSpeed="13.87" duration="25.00" routeLength="195.45" waitSteps="0" timeLoss="10.35" rerouteNo="0" devices="tripinfo_left_9" vType="type1" vaporized=""/>
    <tripinfo id="left_10" depart="44.00" departLane="2i_0" departPos="5.10" departSpeed="0.00" departDelay="32.00" arrival="70.00" arrivalLane="1o_0" arrivalPos="95.25" arrivalSpeed="13.69" duration="26.00" routeLength="195.45" waitSteps="0" timeLoss="11.09" rerouteNo="0" devices="tripinfo_left_10" vType="type1" vaporized=""/>
    <tripinfo id="left_11" depart="49.00" departLane="2i_0" departPos="5.10" departSpeed="0.00" departDelay="36.00" arrival="74.00" arrivalLane="1o_0" arrivalPos="95.25" arrivalSpeed="13.55" duration="25.00" routeLength="195.45" waitSteps="0" timeLoss="10.55" rerouteNo="0" devices="tripinfo_left_11" vType="type1" vaporized=""/>
    <tripinfo id="left_12" depart="54.00" departLane="2i_0" departPos="5.10" departSpeed="0.00" departDelay="40.00" arrival="80.00" arrivalLane="1o_0" arrivalPos="95.25" arrivalSpeed="13.75" duration="26.00" routeLength="195.45" waitSteps="0" timeLoss="10.98" rerouteNo="0" devices="tripinfo_left_12" vType="type1" vaporized=""/>
    <tripinfo id="left_13" depart="59.00" departLane="2i_0" departPos="5.10" departSpeed="0.00" departDelay="42.00" arrival="85.00" arrivalLane="1o_0" arrivalPos="95.25" arrivalSpeed="13.73" duration="26.00" routeLength="195.45" waitSteps="0" timeLoss="11.54" rerouteNo="0" devices="tripinfo_left_13" vType="type1" vaporized=""/>
    <tripinfo id="right_50" depart="61.00" departLane="1i_0" departPos="5.10" departSpeed="0.00" departDelay="0.00" arrival="88.00" arrivalLane="2o_0" arrivalPos="91.95" arrivalSpeed="13.73" duration="27.00" routeLength="194.90" waitSteps="0" timeLoss="12.12" rerouteNo="0" devices="tripinfo_right_50" vType="type1" vaporized=""/>
    <tripinfo id="left_14" depart="64.00" departLane="2i_0" departPos="5.10" departSpeed="0.00" departDelay="44.00" arrival="90.00" arrivalLane="1o_0" arrivalPos="95.25" arrivalSpeed="13.59" duration="26.00" routeLength="195.45" waitSteps="0" timeLoss="11.38" rerouteNo="0" devices="tripinfo_left_14" vType="type1" vaporized=""/>
    <tripinfo id="right_52" depart="66.00" departLane="1i_0" departPos="5.10" departSpeed="0.00" departDelay="4.00" arrival="92.00" arrivalLane="2o_0" arrivalPos="91.95" arrivalSpeed="13.55" duration="26.00" routeLength="194.90" waitSteps="0" timeLoss="11.66" rerouteNo="0" devices="tripinfo_right_52" vType="type1" vaporized=""/>
    <tripinfo id="left_15" depart="69.00" departLane="2i_0" departPos="5.10" departSpeed="0.00" departDelay="48.00" arrival="94.00" arrivalLane="1o_0" arrivalPos="95.25" arrivalSpeed="13.56" duration="25.00" routeLength="195.45" waitSteps="0" timeLoss="10.25" rerouteNo="0" devices="tripinfo_left_15" vType="type1" vaporized=""/>
    <tripinfo id="right_55" depart="72.00" departLane="1i_0" departPos="5.10" departSpeed="0.00" departDelay="7.00" arrival="99.00" arrivalLane="2o_0" arrivalPos="91.95" arrivalSpeed="13.53" duration="27.00" routeLength="194.90" waitSteps="0" timeLoss="12.76" rerouteNo="0" devices="tripinfo_right_55" vType="type1" vaporized=""/>
    <tripinfo id="left_16" depart="74.00" departLane="2i_0" departPos="5.10" departSpeed="0.00" departDelay="52.00" arrival="99.00" arrivalLane="1o_0" arrivalPos="95.25" arrivalSpeed="13.76" duration="25.00" routeLength="195.45" waitSteps="0" timeLoss="10.92" rerouteNo="0" devices="tripinfo_left_16" vType="type1" vaporized=""/>
    <tripinfo id="up_left_68" depart="72.00" departLane="3i_0" departPos="5.10" departSpeed="0.00" departDelay="0.00" arrival="115.00" arrivalLane="1o_1" arrivalPos="95.25" arrivalSpeed="11.60" duration="43.00" routeLength="197.42" waitSteps="5" timeLoss="28.71" rerouteNo="0" devices="tripinfo_up_left_68" vType="type1" vaporized=""/>
    <tripinfo id="up_left_24" depart="31.00" departLane="3i_0" departPos="5.10" departSpeed="0.00" departDelay="0.00" arrival="116.00" arrivalLane="1o_0" arrivalPos="95.25" arrivalSpeed="11.62" duration="85.00" routeLength="197.42" waitSteps="47" timeLoss="70.08" rerouteNo="0" devices="tripinfo_up_left_24" vType="type1" vaporized=""/>
    <tripinfo id="up_left_83" depart="85.00" departLane="3i_0" departPos="5.10" departSpeed="0.00" departDelay="0.00" arrival="117.00" arrivalLane="1o_0" arrivalPos="95.25" arrivalSpeed="11.59" duration="32.00" routeLength="197.42" waitSteps="0" timeLoss="17.77" rerouteNo="0" devices="tripinfo_up_left_83" vType="type1" vaporized=""/>
    <tripinfo id="right_62" depart="88.00" departLane="1i_0" departPos="5.10" departSpeed="0.00" departDelay="19.00" arrival="120.00" arrivalLane="2o_1" arrivalPos="91.95" arrivalSpeed="11.60" duration="32.00" routeLength="194.90" waitSteps="0" timeLoss="17.92" rerouteNo="0" devices="tripinfo_right_62" vType="type1" vaporized=""/>
    <tripinfo id="right_64" depart="93.00" departLane="1i_0" departPos="5.10" departSpeed="0.00" departDelay="23.00" arrival="122.00" arrivalLane="2o_1" arrivalPos="91.95" arrivalSpeed="11.88" duration="29.00" routeLength="194.90" waitSteps="0" timeLoss="14.70" rerouteNo="0" devices="tripinfo_right_64" vType="type1" vaporized=""/>
    <tripinfo id="right_60" depart="83.00" departLane="1i_0" departPos="5.10" departSpeed="0.00" departDelay="15.00" arrival="124.00" arrivalLane="2o_2" arrivalPos="91.95" arrivalSpeed="11.35" duration="41.00" routeLength="194.90" waitSteps="5" timeLoss="26.62" rerouteNo="0" devices="tripinfo_right_60" vType="type1" vaporized=""/>
    <tripinfo id="left_19" depart="87.00" departLane="2i_0" departPos="5.10" departSpeed="0.00" departDelay="61.00" arrival="124.00" arrivalLane="1o_1" arrivalPos="95.25" arrivalSpeed="11.92" duration="37.00" routeLength="195.45" waitSteps="0" timeLoss="22.52" rerouteNo="0" devices="tripinfo_left_19" vType="type1" vaporized=""/>
    <tripinfo id="right_58" depart="78.00" departLane="1i_0" departPos="5.10" departSpeed="0.00" departDelay="11.00" arrival="125.00" arrivalLane="2o_0" arrivalPos="91.95" arrivalSpeed="10.44" duration="47.00" routeLength="194.90" waitSteps="10" timeLoss="33.20" rerouteNo="0" devices="tripinfo_right_58" vType="type1" vaporized=""/>
    <tripinfo id="left_18" depart="82.00" departLane="2i_0" departPos="5.10" departSpeed="0.00" departDelay="57.00" arrival="125.00" arrivalLane="1o_0" arrivalPos="95.25" arrivalSpeed="11.38" duration="43.00" routeLength="195.45" waitSteps="6" timeLoss="28.41" rerouteNo="0" devices="tripinfo_left_18" vType="type1" vaporized=""/>
    <tripinfo id="left_21" depart="97.00" departLane="2i_0" departPos="5.10" departSpeed="0.00" departDelay="69.00" arrival="126.00" arrivalLane="1o_1" arrivalPos="95.25" arrivalSpeed="12.36" duration="29.00" routeLength="195.45" waitSteps="0" timeLoss="14.35" rerouteNo="0" devices="tripinfo_left_21" vType="type1" vaporized=""/>
    <tripinfo id="right_66" depart="98.00" departLane="1i_0" departPos="5.10" departSpeed="0.00" departDelay="27.00" arrival="127.00" arrivalLane="2o_0" arrivalPos="91.95" arrivalSpeed="10.80" duration="29.00" routeLength="194.90" waitSteps="0" timeLoss="14.81" rerouteNo="0" devices="tripinfo_right_66" vType="type1" vaporized=""/>
    <tripinfo id="left_20" depart="92.00" departLane="2i_0" departPos="5.10" departSpeed="0.00" departDelay="65.00" arrival="128.00" arrivalLane="1o_0" arrivalPos="95.25" arrivalSpeed="11.74" duration="36.00" routeLength="195.45" waitSteps="0" timeLoss="21.47" rerouteNo="0" devices="tripinfo_left_20" vType="type1" vaporized=""/>
    <tripinfo id="right_69" depart="103.00" departLane="1i_0" departPos="5.10" departSpeed="0.00" departDelay="31.00" arrival="129.00" arrivalLane="2o_0" arrivalPos="91.95" arrivalSpeed="12.06" duration="26.00" routeLength="194.90" waitSteps="0" timeLoss="11.54" rerouteNo="0" devices="tripinfo_right_69" vType="type1" vaporized=""/>
    <tripinfo id="left_22" depart="102.00" departLane="2i_0" departPos="5.10" departSpeed="0.00" departDelay="73.00" arrival="130.00" arrivalLane="1o_0" arrivalPos="95.25" arrivalSpeed="12.40" duration="28.00" routeLength="195.45" waitSteps="0" timeLoss="13.17" rerouteNo="0" devices="tripinfo_left_22" vType="type1" vaporized=""/>
    <tripinfo id="left_23" depart="107.00" departLane="2i_0" departPos="5.10" departSpeed="0.00" departDelay="76.00" arrival="133.00" arrivalLane="1o_0" arrivalPos="95.25" arrivalSpeed="13.80" duration="26.00" routeLength="195.45" waitSteps="0" timeLoss="11.92" rerouteNo="0" devices="tripinfo_left_23" vType="type1" vaporized=""/>
    <tripinfo id="right_71" depart="108.00" departLane="1i_0" departPos="5.10" departSpeed="0.00" departDelay="35.00" arrival="134.00" arrivalLane="2o_0" arrivalPos="91.95" arrivalSpeed="13.55" duration="26.00" routeLength="194.90" waitSteps="0" timeLoss="11.11" rerouteNo="0" devices="tripinfo_right_71" vType="type1" vaporized=""/>
    <tripinfo id="right_74" depart="113.00" departLane="1i_0" departPos="5.10" departSpeed="0.00" departDelay="38.00" arrival="138.00" arrivalLane="2o_0" arrivalPos="91.95" arrivalSpeed="13.80" duration="25.00" routeLength="194.90" waitSteps="0" timeLoss="10.79" rerouteNo="0" devices="tripinfo_right_74" vType="type1" vaporized=""/>
    <tripinfo id="left_25" depart="112.00" departLane="2i_0" departPos="5.10" departSpeed="0.00" departDelay="78.00" arrival="138.00" arrivalLane="1o_0" arrivalPos="95.25" arrivalSpeed="13.73" duration="26.00" routeLength="195.45" waitSteps="0" timeLoss="11.83" rerouteNo="0" devices="tripinfo_left_25" vType="type1" vaporized=""/>
    <tripinfo id="left_26" depart="117.00" departLane="2i_0" departPos="5.10" departSpeed="0.00" departDelay="82.00" arrival="142.00" arrivalLane="1o_0" arrivalPos="95.25" arrivalSpeed="13.89" duration="25.00" routeLength="195.45" waitSteps="0" timeLoss="10.87" rerouteNo="0" devices="tripinfo_left_26" vType="type1" vaporized=""/>
    <tripinfo id="left_27" depart="122.00" departLane="2i_0" departPos="5.10" departSpeed="0.00" departDelay="86.00" arrival="149.00" arrivalLane="1o_0" arrivalPos="95.25" arrivalSpeed="13.79" duration="27.00" routeLength="195.45" waitSteps="1" timeLoss="11.99" rerouteNo="0" devices="tripinfo_left_27" vType="type1" vaporized=""/>
    <tripinfo id="left_28" depart="128.00" departLane="2i_0" departPos="5.10" departSpeed="0.00" departDelay="91.00" arrival="153.00" arrivalLane="1o_0" arrivalPos="95.25" arrivalSpeed="13.86" duration="25.00" routeLength="195.45" waitSteps="0" timeLoss="10.50" rerouteNo="0" devices="tripinfo_left_28" vType="type1" vaporized=""/>
    <tripinfo id="left_left_17" depart="79.00" departLane="2i_0" departPos="5.10" departSpeed="0.00" departDelay="57.00" arrival="155.00" arrivalLane="3o_0" arrivalPos="88.65" arrivalSpeed="12.26" duration="76.00" routeLength="181.24" waitSteps="40" timeLoss="61.21" rerouteNo="0" devices="tripinfo_left_left_17" vType="type1" vaporized=""/>
    <tripinfo id="left_29" depart="133.00" departLane="2i_0" departPos="5.10" departSpeed="0.00" departDelay="95.00" arrival="158.00" arrivalLane="1o_0" arrivalPos="95.25" arrivalSpeed="13.67" duration="25.00" routeLength="195.45" waitSteps="0" timeLoss="10.61" rerouteNo="0" devices="tripinfo_left_29" vType="type1" vaporized=""/>
    <tripinfo id="left_30" depart="138.00" departLane="2i_0" departPos="5.10" departSpeed="0.00" departDelay="99.00" arrival="164.00" arrivalLane="1o_0" arrivalPos="95.25" arrivalSpeed="13.87" duration="26.00" routeLength="195.45" waitSteps="0" timeLoss="11.03" rerouteNo="0" devices="tripinfo_left_30" vType="type1" vaporized=""/>
    <tripinfo id="right_80" depart="123.00" departLane="1i_0" departPos="5.10" departSpeed="0.00" departDelay="41.00" arrival="165.00" arrivalLane="2o_2" arrivalPos="91.95" arrivalSpeed="11.42" duration="42.00" routeLength="194.90" waitSteps="5" timeLoss="27.64" rerouteNo="0" devices="tripinfo_right_80" vType="type1" vaporized=""/>
    <tripinfo id="right_76" depart="118.00" departLane="1i_0" departPos="5.10" departSpeed="0.00" departDelay="41.00" arrival="165.00" arrivalLane="2o_0" arrivalPos="91.95" arrivalSpeed="10.91" duration="47.00" routeLength="194.90" waitSteps="10" timeLoss="32.88" rerouteNo="0" devices="tripinfo_right_76" vType="type1" vaporized=""/>
    <tripinfo id="right_82" depart="128.00" departLane="1i_0" departPos="5.10" departSpeed="0.00" departDelay="44.00" arrival="166.00" arrivalLane="2o_1" arrivalPos="91.95" arrivalSpeed="11.45" duration="38.00" routeLength="194.90" waitSteps="0" timeLoss="23.43" rerouteNo="0" devices="tripinfo_right_82" vType="type1" vaporized=""/>
    <tripinfo id="right_84" depart="133.00" departLane="1i_0" departPos="5.10" departSpeed="0.00" departDelay="48.00" arrival="167.00" arrivalLane="2o_0" arrivalPos="91.95" arrivalSpeed="11.20" duration="34.00" routeLength="194.90" waitSteps="0" timeLoss="19.75" rerouteNo="0" devices="tripinfo_right_84" vType="type1" vaporized=""/>
    <tripinfo id="right_86" depart="139.00" departLane="1i_0" departPos="5.10" departSpeed="0.00" departDelay="53.00" arrival="168.00" arrivalLane="2o_1" arrivalPos="91.95" arrivalSpeed="11.73" duration="29.00" routeLength="194.90" waitSteps="0" timeLoss="14.23" rerouteNo="0" devices="tripinfo_right_86" vType="type1" vaporized=""/>
    <tripinfo id="left_31" depart="143.00" departLane="2i_0" departPos="5.10" departSpeed="0.00" departDelay="103.00" arrival="168.00" arrivalLane="1o_0" arrivalPos="95.25" arrivalSpeed="13.72" duration="25.00" routeLength="195.45" waitSteps="0" timeLoss="10.86" rerouteNo="0" devices="tripinfo_left_31" vType="type1" vaporized=""/>
    <tripinfo id="right_88" depart="144.00" departLane="1i_0" departPos="5.10" departSpeed="0.00" departDelay="57.00" arrival="170.00" arrivalLane="2o_0" arrivalPos="91.95" arrivalSpeed="13.50" duration="26.00" routeLength="194.90" waitSteps="0" timeLoss="11.12" rerouteNo="0" devices="tripinfo_right_88" vType="type1" vaporized=""/>
    <tripinfo id="up_left_98" depart="98.00" departLane="3i_0" departPos="5.10" departSpeed="0.00" departDelay="0.00" arrival="185.00" arrivalLane="1o_0" arrivalPos="95.25" arrivalSpeed="11.26" duration="87.00" routeLength="197.42" waitSteps="52" timeLoss="72.71" rerouteNo="0" devices="tripinfo_up_left_98" vType="type1" vaporized=""/>
    <tripinfo id="right_147" depart="159.00" departLane="1i_0" departPos="5.10" departSpeed="0.00" departDelay="8.00" arrival="186.00" arrivalLane="2o_1" arrivalPos="91.95" arrivalSpeed="13.75" duration="27.00" routeLength="194.90" waitSteps="0" timeLoss="12.28" rerouteNo="0" devices="tripinfo_right_147" vType="type1" vaporized=""/>
    <tripinfo id="up_left_127" depart="129.00" departLane="3i_0" departPos="5.10" departSpeed="0.00" departDelay="0.00" arrival="186.00" arrivalLane="1o_1" arrivalPos="95.25" arrivalSpeed="11.90" duration="57.00" routeLength="197.42" waitSteps="19" timeLoss="42.19" rerouteNo="0" devices="tripinfo_up_left_127" vType="type1" vaporized=""/>
    <tripinfo id="up_left_144" depart="149.00" departLane="3i_0" departPos="5.10" departSpeed="0.00" departDelay="0.00" arrival="188.00" arrivalLane="1o_0" arrivalPos="95.25" arrivalSpeed="11.71" duration="39.00" routeLength="197.42" waitSteps="0" timeLoss="24.25" rerouteNo="0" devices="tripinfo_up_left_144" vType="type1" vaporized=""/>
    <tripinfo id="right_89" depart="149.00" departLane="1i_0" departPos="5.10" departSpeed="0.00" departDelay="61.00" arrival="195.00" arrivalLane="2o_0" arrivalPos="91.95" arrivalSpeed="10.63" duration="46.00" routeLength="194.90" waitSteps="9" timeLoss="31.87" rerouteNo="0" devices="tripinfo_right_89" vType="type1" vaporized=""/>
    <tripinfo id="right_90" depart="154.00" departLane="1i_0" departPos="5.10" departSpeed="0.00" departDelay="65.00" arrival="195.00" arrivalLane="2o_1" arrivalPos="91.95" arrivalSpeed="11.01" duration="41.00" routeLength="194.90" waitSteps="4" timeLoss="26.32" rerouteNo="0" devices="tripinfo_right_90" vType="type1" vaporized=""/>
    <tripinfo id="left_33" depart="153.00" departLane="2i_0" departPos="5.10" departSpeed="0.00" departDelay="110.00" arrival="195.00" arrivalLane="1o_1" arrivalPos="95.25" arrivalSpeed="11.75" duration="42.00" routeLength="195.45" waitSteps="5" timeLoss="27.26" rerouteNo="0" devices="tripinfo_left_33" vType="type1" vaporized=""/>
    <tripinfo id="left_32" depart="148.00" departLane="2i_0" departPos="5.10" departSpeed="0.00" departDelay="106.00" arrival="195.00" arrivalLane="1o_0" arrivalPos="95.25" arrivalSpeed="12.06" duration="47.00" routeLength="195.45" waitSteps="9" timeLoss="32.39" rerouteNo="0" devices="tripinfo_left_32" vType="type1" vaporized=""/>
    <tripinfo id="right_151" depart="169.00" departLane="1i_0" departPos="5.10" departSpeed="0.00" departDelay="16.00" arrival="196.00" arrivalLane="2o_1" arrivalPos="91.95" arrivalSpeed="11.08" duration="27.00" routeLength="194.90" waitSteps="0" timeLoss="12.94" rerouteNo="0" devices="tripinfo_right_151" vType="type1" vaporized=""/>
    <tripinfo id="right_149" depart="164.00" departLane="1i_0" departPos="5.10" departSpeed="0.00" departDelay="12.00" arrival="197.00" arrivalLane="2o_0" arrivalPos="91.95" arrivalSpeed="11.26" duration="33.00" routeLength="194.90" waitSteps="0" timeLoss="18.66" rerouteNo="0" devices="tripinfo_right_149" vType="type1" vaporized=""/>
    <tripinfo id="left_35" depart="164.00" departLane="2i_0" departPos="5.10" departSpeed="0.00" departDelay="119.00" arrival="197.00" arrivalLane="1o_1" arrivalPos="95.25" arrivalSpeed="11.80" duration="33.00" routeLength="195.45" waitSteps="0" timeLoss="18.20" rerouteNo="0" devices="tripinfo_left_35" vType="type1" vaporized=""/>
    <tripinfo id="left_34" depart="158.00" departLane="2i_0" departPos="5.10" departSpeed="0.00" departDelay="114.00" arrival="197.00" arrivalLane="1o_0" arrivalPos="95.25" arrivalSpeed="12.30" duration="39.00" routeLength="195.45" waitSteps="2" timeLoss="24.18" rerouteNo="0" devices="tripinfo_left_34" vType="type1" vaporized=""/>
    <tripinfo id="right_152" depart="174.00" departLane="1i_0" departPos="5.10" departSpeed="0.00" departDelay="20.00" arrival="199.00" arrivalLane="2o_0" arrivalPos="91.95" arrivalSpeed="13.85" duration="25.00" routeLength="194.90" waitSteps="0" timeLoss="10.43" rerouteNo="0" devices="tripinfo_right_152" vType="type1" vaporized=""/>
    <tripinfo id="left_36" depart="169.00" departLane="2i_0" departPos="5.10" departSpeed="0.00" departDelay="123.00" arrival="199.00" arrivalLane="1o_0" arrivalPos="95.25" arrivalSpeed="12.39" duration="30.00" routeLength="195.45" waitSteps="0" timeLoss="15.15" rerouteNo="0" devices="tripinfo_left_36" vType="type1" vaporized=""/>
    <tripinfo id="left_37" depart="174.00" departLane="2i_0" departPos="5.10" departSpeed="0.00" departDelay="127.00" arrival="200.00" arrivalLane="1o_0" arrivalPos="95.25" arrivalSpeed="13.57" duration="26.00" routeLength="195.45" waitSteps="0" timeLoss="11.95" rerouteNo="0" devices="tripinfo_left_37" vType="type1" vaporized=""/>
    <tripinfo id="right_154" depart="179.00" departLane="1i_0" departPos="5.10" departSpeed="0.00" departDelay="24.00" arrival="204.00" arrivalLane="2o_0" arrivalPos="91.95" arrivalSpeed="13.58" duration="25.00" routeLength="194.90" waitSteps="0" timeLoss="10.86" rerouteNo="0" devices="tripinfo_right_154" vType="type1" vaporized=""/>
    <tripinfo id="left_38" depart="179.00" departLane="2i_0" departPos="5.10" departSpeed="0.00" departDelay="131.00" arrival="204.00" arrivalLane="1o_0" arrivalPos="95.25" arrivalSpeed="13.72" duration="25.00" routeLength="195.45" waitSteps="0" timeLoss="10.60" rerouteNo="0" devices="tripinfo_left_38" vType="type1" vaporized=""/>
    <tripinfo id="right_156" depart="184.00" departLane="1i_0" departPos="5.10" departSpeed="0.00" departDelay="28.00" arrival="209.00" arrivalLane="2o_0" arrivalPos="91.95" arrivalSpeed="13.77" duration="25.00" routeLength="194.90" waitSteps="0" timeLoss="10.86" rerouteNo="0" devices="tripinfo_right_156" vType="type1" vaporized=""/>
    <tripinfo id="left_39" depart="184.00" departLane="2i_0" departPos="5.10" departSpeed="0.00" departDelay="135.00" arrival="209.00" arrivalLane="1o_0" arrivalPos="95.25" arrivalSpeed="13.53" duration="25.00" routeLength="195.45" waitSteps="0" timeLoss="10.81" rerouteNo="0" devices="tripinfo_left_39" vType="type1" vaporized=""/>
    <tripinfo id="right_158" depart="189.00" departLane="1i_0" departPos="5.10" departSpeed="0.00" departDelay="32.00" arrival="214.00" arrivalLane="2o_0" arrivalPos="91.95" arrivalSpeed="13.74" duration="25.00" routeLength="194.90" waitSteps="0" timeLoss="10.46" rerouteNo="0" devices="tripinfo_right_158" vType="type1" vaporized=""/>
    <tripinfo id="left_41" depart="192.00" departLane="2i_0" departPos="5.10" departSpeed="0.00" departDelay="141.00" arrival="217.00" arrivalLane="1o_0" arrivalPos="95.25" arrivalSpeed="13.84" duration="25.00" routeLength="195.45" waitSteps="0" timeLoss="10.76" rerouteNo="0" devices="tripinfo_left_41" vType="type1" vaporized=""/>
    <tripinfo id="right_160" depart="194.00" departLane="1i_0" departPos="5.10" departSpeed="0.00" departDelay="36.00" arrival="218.00" arrivalLane="2o_0" arrivalPos="91.95" arrivalSpeed="13.59" duration="24.00" routeLength="194.90" waitSteps="0" timeLoss="9.93" rerouteNo="0" devices="tripinfo_right_160" vType="type1" vaporized=""/>
    <tripinfo id="left_42" depart="197.00" departLane="2i_0" departPos="5.10" departSpeed="0.00" departDelay="145.00" arrival="224.00" arrivalLane="1o_0" arrivalPos="95.25" arrivalSpeed="13.71" duration="27.00" routeLength="195.45" waitSteps="0" timeLoss="12.06" rerouteNo="0" devices="tripinfo_left_42" vType="type1" vaporized=""/>
    <tripinfo id="right_163" depart="199.00" departLane="1i_0" departPos="5.10" departSpeed="0.00" departDelay="40.00" arrival="226.00" arrivalLane="2o_0" arrivalPos="91.95" arrivalSpeed="13.84" duration="27.00" routeLength="194.90" waitSteps="0" timeLoss="12.40" rerouteNo="0" devices="tripinfo_right_163" vType="type1" vaporized=""/>
    <tripinfo id="left_43" depart="202.00" departLane="2i_0" departPos="5.10" departSpeed="0.00" departDelay="149.00" arrival="227.00" arrivalLane="1o_0" arrivalPos="95.25" arrivalSpeed="13.79" duration="25.00" routeLength="195.45" waitSteps="0" timeLoss="10.15" rerouteNo="0" devices="tripinfo_left_43" vType="type1" vaporized=""/>
    <tripinfo id="right_164" depart="204.00" departLane="1i_0" departPos="5.10" departSpeed="0.00" departDelay="44.00" arrival="230.00" arrivalLane="2o_0" arrivalPos="91.95" arrivalSpeed="13.90" duration="26.00" routeLength="194.90" waitSteps="0" timeLoss="11.85" rerouteNo="0" devices="tripinfo_right_164" vType="type1" vaporized=""/>
    <tripinfo id="left_44" depart="207.00" departLane="2i_0" departPos="5.10" departSpeed="0.00" departDelay="153.00" arrival="233.00" arrivalLane="1o_0" arrivalPos="95.25" arrivalSpeed="13.80" duration="26.00" routeLength="195.45" waitSteps="0" timeLoss="11.33" rerouteNo="0" devices="tripinfo_left_44" vType="type1" vaporized=""/>
    <tripinfo id="right_165" depart="209.00" departLane="1i_0" departPos="5.10" departSpeed="0.00" departDelay="48.00" arrival="235.00" arrivalLane="2o_0" arrivalPos="91.95" arrivalSpeed="13.70" duration="26.00" routeLength="194.90" waitSteps="0" timeLoss="11.96" rerouteNo="0" devices="tripinfo_right_165" vType="type1" vaporized=""/>
    <tripinfo id="left_45" depart="212.00" departLane="2i_0" departPos="5.10" departSpeed="0.00" departDelay="156.00" arrival="238.00" arrivalLane="1o_0" arrivalPos="95.25" arrivalSpeed="13.53" duration="26.00" routeLength="195.45" waitSteps="0" timeLoss="11.75" rerouteNo="0" devices="tripinfo_left_45" vType="type1" vaporized=""/>
    <tripinfo id="right_167" depart="214.00" departLane="1i_0" departPos="5.10" departSpeed="0.00" departDelay="52.00" arrival="241.00" arrivalLane="2o_0" arrivalPos="91.95" arrivalSpeed="13.72" duration="27.00" routeLength="194.90" waitSteps="0" timeLoss="12.08" rerouteNo="0" devices="tripinfo_right_167" vType="type1" vaporized=""/>
    <tripinfo id="left_46" depart="217.00" departLane="2i_0" departPos="5.10" departSpeed="0.00" departDelay="160.00" arrival="243.00" arrivalLane="1o_0" arrivalPos="95.25" arrivalSpeed="13.51" duration="26.00" routeLength="195.45" waitSteps="0" timeLoss="11.40" rerouteNo="0" devices="tripinfo_left_46" vType="type1" vaporized=""/>
    <tripinfo id="left_47" depart="223.00" departLane="2i_0" departPos="5.10" departSpeed="0.00" departDelay="165.00" arrival="248.00" arrivalLane="1o_0" arrivalPos="95.25" arrivalSpeed="13.80" duration="25.00" routeLength="195.45" waitSteps="0" timeLoss="10.79" rerouteNo="0" devices="tripinfo_left_47" vType="type1" vaporized=""/>
    <tripinfo id="left_48" depart="228.00" departLane="2i_0" departPos="5.10" departSpeed="0.00" departDelay="168.00" arrival="253.00" arrivalLane="1o_0" arrivalPos="95.25" arrivalSpeed="13.78" duration="25.00" routeLength="195.45" waitSteps="0" timeLoss="10.48" rerouteNo="0" devices="tripinfo_left_48" vType="type1" vaporized=""/>
    <tripinfo id="left_left_40" depart="189.00" departLane="2i_0" departPos="5.10" departSpeed="0.00" departDelay="140.00" arrival="254.00" arrivalLane="3o_0" arrivalPos="88.65" arrivalSpeed="11.58" duration="65.00" routeLength="181.24" waitSteps="28" timeLoss="50.22" rerouteNo="0" devices="tripinfo_left_left_40" vType="type1" vaporized=""/>
    <tripinfo id="right_172" depart="231.00" departLane="1i_0" departPos="5.10" departSpeed="0.00" departDelay="66.00" arrival="258.00" arrivalLane="2o_1" arrivalPos="91.95" arrivalSpeed="13.85" duration="27.00" routeLength="194.90" waitSteps="0" timeLoss="12.41" rerouteNo="0" devices="tripinfo_right_172" vType="type1" vaporized=""/>